29
	Energy:       4.7130476
O         -1.48198       -0.33694       -1.46016
Cl        -0.06837       -0.09387       -1.65990
O          0.70698       -1.04590       -0.88886
O          0.27646       -0.23812       -3.06540
O          0.26055        1.25649       -1.24460
C          3.77085        2.13134        0.93211
C          3.79616        0.72867        1.03961
C          5.02434        0.05853        0.87973
C          6.21373        0.77889        0.73162
C          6.18802        2.17142        0.69833
C          4.96685        2.84642        0.76526
C          2.58871        0.06748        1.31216
C          1.39381        0.78909        1.49711
C          0.15376        0.17721        1.76476
C         -1.03391        0.91593        1.70799
C         -0.99932        2.28303        1.44200
C          0.22720        2.92354        1.26018
C          1.41834        2.17866        1.27450
N          2.59261        2.77454        1.00204
H          5.06433       -1.03019        0.88243
H          7.16334        0.24923        0.65683
H          7.12207        2.72525        0.61101
H          4.97190        3.93163        0.71161
H          2.55512       -1.02299        1.31786
H          0.08323       -0.90556        1.86442
H         -1.99124        0.39691        1.74593
H         -1.93090        2.82039        1.27491
H          0.22232        3.97328        0.98331
H          2.57270        3.76538        0.79530
